REMARK SMILES COc1ccc(C(=O)OC[C@H]2O[C@H]3c4c(cc(O)c(OC)c4O)C(=O)O[C@@H]3[C@@H](O)[C@@H]2O)cc1OC
REMARK SMILES IDX 9 1 10 2 11 3 12 4 13 5 27 6 14 7 30 8 26 9 28 10 15 11
REMARK SMILES IDX 22 12 24 13 16 14 19 15 25 16 17 17 31 18 29 20 23 22 20 24
REMARK SMILES IDX 21 25 18 26 7 28 8 29 6 30 32 31 5 32 33 33 4 34 3 35 34 36
REMARK SMILES IDX 35 37 2 38 1 39
REMARK H PARENT 31 19 29 21 23 23 18 27
REMARK Flexibility Score: inf
ROOT
ATOM      1  O   UNL     1       1.494   2.066   0.245  1.00  0.00    -0.459 OA
ENDROOT
BRANCH   1   2
ATOM      2  C   UNL     1       0.469   2.992   0.554  1.00  0.00     0.268 C 
BRANCH   2   3
ATOM      3  C   UNL     1      -0.806   2.564  -0.166  1.00  0.00     0.188 C 
ATOM      4  O   UNL     1      -1.113   1.236   0.274  1.00  0.00    -0.360 OA
ATOM      5  C   UNL     1      -2.237   0.693  -0.414  1.00  0.00     0.197 C 
ATOM      6  C   UNL     1      -3.480   1.503  -0.069  1.00  0.00     0.241 C 
ATOM      7  C   UNL     1      -2.515  -0.731  -0.011  1.00  0.00     0.045 A 
ATOM      8  C   UNL     1      -1.979   3.509   0.121  1.00  0.00     0.179 C 
ATOM      9  O   UNL     1      -4.617   0.973  -0.779  1.00  0.00    -0.453 OA
ATOM     10  C   UNL     1      -3.283   2.966  -0.466  1.00  0.00     0.189 C 
ATOM     11  C   UNL     1      -3.822  -1.223  -0.155  1.00  0.00     0.073 A 
ATOM     12  C   UNL     1      -1.509  -1.590   0.449  1.00  0.00     0.168 A 
ATOM     13  C   UNL     1      -4.893  -0.358  -0.711  1.00  0.00     0.339 C 
ATOM     14  C   UNL     1      -4.120  -2.548   0.182  1.00  0.00     0.066 A 
ATOM     15  C   UNL     1      -1.810  -2.910   0.789  1.00  0.00     0.203 A 
ATOM     16  O   UNL     1      -5.953  -0.826  -1.107  1.00  0.00    -0.246 OA
ATOM     17  C   UNL     1      -3.113  -3.386   0.660  1.00  0.00     0.162 A 
BRANCH   8  18
ATOM     18  O   UNL     1      -1.736   4.790  -0.453  1.00  0.00    -0.387 OA
ATOM     19  H   UNL     1      -1.595   4.670  -1.407  1.00  0.00     0.211 HD
ENDBRANCH   8  18
BRANCH  10  20
ATOM     20  O   UNL     1      -4.381   3.724   0.045  1.00  0.00    -0.386 OA
ATOM     21  H   UNL     1      -4.380   3.643   1.014  1.00  0.00     0.211 HD
ENDBRANCH  10  20
BRANCH  12  22
ATOM     22  O   UNL     1      -0.210  -1.182   0.549  1.00  0.00    -0.504 OA
ATOM     23  H   UNL     1      -0.104  -0.309   0.139  1.00  0.00     0.293 HD
ENDBRANCH  12  22
BRANCH  15  24
ATOM     24  O   UNL     1      -0.827  -3.741   1.240  1.00  0.00    -0.490 OA
ATOM     25  C   UNL     1      -0.113  -4.489   0.259  1.00  0.00     0.278 C 
ENDBRANCH  15  24
BRANCH  17  26
ATOM     26  O   UNL     1      -3.416  -4.674   0.986  1.00  0.00    -0.504 OA
ATOM     27  H   UNL     1      -4.363  -4.827   0.831  1.00  0.00     0.293 HD
ENDBRANCH  17  26
ENDBRANCH   2   3
ENDBRANCH   1   2
BRANCH   1  28
ATOM     28  C   UNL     1       2.712   2.302   0.813  1.00  0.00     0.338 C 
ATOM     29  O   UNL     1       2.985   3.233   1.554  1.00  0.00    -0.246 OA
BRANCH  28  30
ATOM     30  C   UNL     1       3.695   1.264   0.412  1.00  0.00     0.064 A 
ATOM     31  C   UNL     1       3.309   0.228  -0.439  1.00  0.00     0.066 A 
ATOM     32  C   UNL     1       5.005   1.325   0.887  1.00  0.00     0.020 A 
ATOM     33  C   UNL     1       4.233  -0.747  -0.815  1.00  0.00     0.161 A 
ATOM     34  C   UNL     1       5.929   0.349   0.511  1.00  0.00     0.051 A 
ATOM     35  C   UNL     1       5.543  -0.686  -0.340  1.00  0.00     0.160 A 
BRANCH  33  36
ATOM     36  O   UNL     1       3.844  -1.753  -1.647  1.00  0.00    -0.493 OA
ATOM     37  C   UNL     1       2.487  -1.741  -2.087  1.00  0.00     0.278 C 
ENDBRANCH  33  36
BRANCH  35  38
ATOM     38  O   UNL     1       6.455  -1.632  -0.701  1.00  0.00    -0.493 OA
ATOM     39  C   UNL     1       7.772  -1.497  -0.171  1.00  0.00     0.278 C 
ENDBRANCH  35  38
ENDBRANCH  28  30
ENDBRANCH   1  28
TORSDOF 11
