REMARK  8 active torsions:
REMARK  status: ('A' for Active; 'I' for Inactive)
REMARK    1  A    between atoms: CAO_10  and  OAW_26 
REMARK    2  A    between atoms: CAT_15  and  CBA_27 
REMARK    3  A    between atoms: CAT_15  and  SBG_33 
REMARK    4  A    between atoms: CAX_16  and  CBE_31 
REMARK       I    between atoms: CAX_16  and  NAV_21 
REMARK    5  A    between atoms: CAY_17  and  CBC_29 
REMARK    6  A    between atoms: CAY_17  and  OAW_26 
REMARK    7  A    between atoms: NAV_21  and  SBG_33 
REMARK    8  A    between atoms: CBD_30  and  NBF_32 
ROOT
HETATM    1  CAB AZJ A1201      13.771 100.339  55.769  1.00 84.96     0.071 C 
HETATM    2  CAH AZJ A1201      17.880  97.980  52.757  1.00 86.65     0.103 C 
HETATM    3  CAN AZJ A1201      16.367  97.888  54.670  1.00 85.15     0.045 A 
HETATM    4  CAZ AZJ A1201      14.798  99.668  55.091  1.00 86.56     0.049 A 
HETATM    5  NAC AZJ A1201      18.732  97.525  52.124  1.00 87.26    -0.191 NA
HETATM    6  NAU AZJ A1201      15.254 100.295  53.982  1.00 85.89    -0.239 NA
HETATM    7  CBB AZJ A1201      16.814  98.566  53.536  1.00 85.79     0.086 A 
HETATM    8  CBC AZJ A1201      15.350  98.411  55.485  1.00 86.79     0.065 A 
HETATM    9  CBD AZJ A1201      16.213  99.786  53.177  1.00 87.10     0.126 A 
ENDROOT
BRANCH   9  10
HETATM   10  NBF AZJ A1201      16.703 100.604  52.028  1.00 90.82    -0.266 NA
HETATM   11  CAR AZJ A1201      16.174 102.007  51.996  1.00 92.57     0.098 C 
HETATM   12  CAP AZJ A1201      17.038 102.905  51.108  1.00 93.81     0.029 C 
HETATM   13  CBE AZJ A1201      17.143 102.292  49.698  1.00 97.63     0.081 C 
HETATM   14  CAQ AZJ A1201      17.577 100.787  49.712  1.00 96.16     0.029 C 
HETATM   15  CAS AZJ A1201      16.673  99.984  50.671  1.00 93.23     0.098 C 
BRANCH  13  16
HETATM   16  CAX AZJ A1201      18.087 103.156  48.854  1.00102.97     0.235 C 
HETATM   17  NAV AZJ A1201      17.427 104.047  48.091  1.00107.99    -0.254 N 
HETATM   18  H25 AZJ A1201      16.417 104.057  48.097  1.00107.99     0.181 HD
HETATM   19  OAD AZJ A1201      19.314 103.057  48.946  1.00103.04    -0.272 OA
BRANCH  17  20
HETATM   20  SBG AZJ A1201      18.251 105.128  47.141  1.00111.75     0.236 S 
HETATM   21  OAF AZJ A1201      17.219 106.038  46.455  1.00112.02    -0.205 OA
HETATM   22  OAG AZJ A1201      19.154 105.981  48.045  1.00111.85    -0.205 OA
BRANCH  20  23
HETATM   23  CAT AZJ A1201      19.319 104.282  45.881  1.00109.52     0.202 C 
BRANCH  23  24
HETATM   24  CBA AZJ A1201      18.684 103.383  44.996  1.00106.06    -0.043 A 
HETATM   25  CAL AZJ A1201      18.656 103.676  43.624  1.00104.09     0.008 A 
HETATM   26  CAJ AZJ A1201      18.081 102.779  42.715  1.00102.93     0.001 A 
HETATM   27  CAI AZJ A1201      17.564 101.563  43.169  1.00102.56     0.000 A 
HETATM   28  CAK AZJ A1201      17.619 101.249  44.531  1.00102.88     0.001 A 
HETATM   29  CAM AZJ A1201      18.188 102.148  45.439  1.00104.19     0.008 A 
ENDBRANCH  23  24
ENDBRANCH  20  23
ENDBRANCH  17  20
ENDBRANCH  13  16
ENDBRANCH   9  10
BRANCH   8  30
HETATM   30  CAY AZJ A1201      14.935  97.644  56.605  1.00 87.30     0.295 C 
HETATM   31  OAE AZJ A1201      13.955  97.948  57.289  1.00 87.05    -0.259 OA
BRANCH  30  32
HETATM   32  OAW AZJ A1201      15.714  96.552  56.895  1.00 87.84    -0.318 OA
BRANCH  32  33
HETATM   33  CAO AZJ A1201      15.031  95.287  56.826  1.00 86.46     0.174 C 
HETATM   34  CAA AZJ A1201      15.921  94.175  57.389  1.00 85.43     0.034 C 
ENDBRANCH  32  33
ENDBRANCH  30  32
ENDBRANCH   8  30
TORSDOF 8
