REMARK SMILES O=C([O-])c1cc(C(=O)[O-])c(C(=O)N(Cc2cccc(Oc3ccccc3)c2)[C@H]2CCCc3ccccc32)cc1C(=O)[O-]
REMARK SMILES IDX 14 1 13 2 11 3 12 4 10 5 38 6 6 7 39 8 5 9 4 10 7 11 9 12
REMARK SMILES IDX 8 13 40 14 42 15 41 16 2 17 3 18 1 19 28 20 29 21 37 22
REMARK SMILES IDX 30 23 32 24 36 25 31 26 33 27 35 28 34 29 15 30 27 31 16 32
REMARK SMILES IDX 19 33 17 34 18 35 20 36 21 37 26 38 22 39 25 40 23 41 24 42
REMARK H PARENT
REMARK Flexibility Score: inf
ROOT
ATOM      1  C   UNL     1      17.386 -12.675 -39.964  1.00  0.00     0.156 C 
ENDROOT
BRANCH   1   2
ATOM      2  N   UNL     1      17.596 -12.849 -38.506  1.00  0.00    -0.327 N 
BRANCH   2   3
ATOM      3  C   UNL     1      16.738 -13.638 -37.796  1.00  0.00     0.255 C 
ATOM      4  O   UNL     1      15.753 -14.179 -38.303  1.00  0.00    -0.269 OA
BRANCH   3   5
ATOM      5  C   UNL     1      16.981 -13.876 -36.321  1.00  0.00     0.049 A 
ATOM      6  C   UNL     1      16.294 -13.062 -35.416  1.00  0.00     0.025 A 
ATOM      7  C   UNL     1      17.801 -14.918 -35.825  1.00  0.00     0.011 A 
ATOM      8  C   UNL     1      16.383 -13.239 -34.027  1.00  0.00     0.007 A 
ATOM      9  C   UNL     1      17.897 -15.088 -34.437  1.00  0.00     0.021 A 
ATOM     10  C   UNL     1      17.204 -14.283 -33.518  1.00  0.00     0.007 A 
BRANCH   7  11
ATOM     11  C   UNL     1      18.553 -15.881 -36.700  1.00  0.00     0.072 C 
ATOM     12  O   UNL     1      19.804 -15.846 -36.657  1.00  0.00    -0.545 OA
ATOM     13  O   UNL     1      17.885 -16.678 -37.397  1.00  0.00    -0.545 OA
ENDBRANCH   7  11
BRANCH   8  14
ATOM     14  C   UNL     1      15.602 -12.293 -33.162  1.00  0.00     0.072 C 
ATOM     15  O   UNL     1      14.353 -12.402 -33.168  1.00  0.00    -0.545 OA
ATOM     16  O   UNL     1      16.248 -11.435 -32.516  1.00  0.00    -0.545 OA
ENDBRANCH   8  14
BRANCH  10  17
ATOM     17  C   UNL     1      17.360 -14.600 -32.050  1.00  0.00     0.072 C 
ATOM     18  O   UNL     1      16.325 -14.803 -31.373  1.00  0.00    -0.545 OA
ATOM     19  O   UNL     1      18.525 -14.697 -31.596  1.00  0.00    -0.545 OA
ENDBRANCH  10  17
ENDBRANCH   3   5
ENDBRANCH   2   3
BRANCH   2  20
ATOM     20  C   UNL     1      18.742 -12.090 -37.941  1.00  0.00     0.116 C 
ATOM     21  C   UNL     1      20.136 -12.581 -38.417  1.00  0.00     0.030 C 
ATOM     22  C   UNL     1      18.595 -10.553 -38.017  1.00  0.00    -0.022 A 
ATOM     23  C   UNL     1      21.269 -11.670 -37.941  1.00  0.00     0.007 C 
ATOM     24  C   UNL     1      19.701  -9.708 -38.282  1.00  0.00    -0.043 A 
ATOM     25  C   UNL     1      17.350  -9.957 -37.763  1.00  0.00     0.006 A 
ATOM     26  C   UNL     1      21.086 -10.282 -38.572  1.00  0.00     0.036 C 
ATOM     27  C   UNL     1      19.515  -8.320 -38.298  1.00  0.00     0.004 A 
ATOM     28  C   UNL     1      17.181  -8.576 -37.786  1.00  0.00     0.000 A 
ATOM     29  C   UNL     1      18.267  -7.755 -38.057  1.00  0.00     0.000 A 
ENDBRANCH   2  20
ENDBRANCH   1   2
BRANCH   1  30
ATOM     30  C   UNL     1      18.211 -13.584 -40.874  1.00  0.00    -0.025 A 
ATOM     31  C   UNL     1      18.669 -13.097 -42.103  1.00  0.00     0.052 A 
ATOM     32  C   UNL     1      18.551 -14.886 -40.490  1.00  0.00     0.006 A 
ATOM     33  C   UNL     1      19.455 -13.898 -42.935  1.00  0.00     0.127 A 
ATOM     34  C   UNL     1      19.363 -15.677 -41.298  1.00  0.00     0.004 A 
ATOM     35  C   UNL     1      19.827 -15.179 -42.513  1.00  0.00     0.047 A 
BRANCH  33  36
ATOM     36  O   UNL     1      19.864 -13.398 -44.150  1.00  0.00    -0.457 OA
BRANCH  36  37
ATOM     37  C   UNL     1      19.519 -14.013 -45.341  1.00  0.00     0.127 A 
ATOM     38  C   UNL     1      20.088 -13.492 -46.504  1.00  0.00     0.047 A 
ATOM     39  C   UNL     1      18.625 -15.093 -45.438  1.00  0.00     0.047 A 
ATOM     40  C   UNL     1      19.787 -14.044 -47.747  1.00  0.00     0.004 A 
ATOM     41  C   UNL     1      18.332 -15.653 -46.678  1.00  0.00     0.004 A 
ATOM     42  C   UNL     1      18.915 -15.127 -47.827  1.00  0.00     0.000 A 
ENDBRANCH  36  37
ENDBRANCH  33  36
ENDBRANCH   1  30
TORSDOF 10
