REMARK SMILES COc1c(O)cc2c(c1O)[C@@H]1O[C@@H](CO)[C@H](NC(=O)[C@@H](CS)NC(C)=O)[C@@H](O)[C@@H]1OC2=O
REMARK SMILES IDX 17 1 18 2 19 3 16 5 4 6 6 7 3 8 7 9 9 10 8 11 31 12 11 13
REMARK SMILES IDX 30 14 32 15 12 16 29 17 13 18 27 19 5 20 2 22 1 23 10 24
REMARK SMILES IDX 14 26 15 27 28 29 20 31 23 32 24 33 25 35 26 36 21 37 22 38
REMARK H PARENT 17 4 5 21 10 25 15 28 28 30 23 34 22 39
REMARK Flexibility Score: inf
ROOT
ATOM      1  N   UNL     1       1.523  -0.722  -1.405  1.00  0.00    -0.346 N 
ATOM      2  C   UNL     1       0.581  -1.020  -2.368  1.00  0.00     0.243 C 
ATOM      3  O   UNL     1       0.876  -1.181  -3.549  1.00  0.00    -0.273 OA
ATOM      4  H   UNL     1       1.196  -0.711  -0.437  1.00  0.00     0.164 HD
ENDROOT
BRANCH   1   5
ATOM      5  C   UNL     1       2.972  -0.823  -1.611  1.00  0.00     0.146 C 
ATOM      6  C   UNL     1       9.524  -1.826  -3.605  1.00  0.00     0.162 A 
ATOM      7  C   UNL     1       8.635  -1.132  -4.346  1.00  0.00     0.066 A 
ATOM      8  C   UNL     1       9.146  -2.323  -2.391  1.00  0.00     0.203 A 
ATOM      9  C   UNL     1       7.377  -0.924  -3.906  1.00  0.00     0.073 A 
ATOM     10  C   UNL     1       7.875  -2.106  -1.965  1.00  0.00     0.168 A 
ATOM     11  C   UNL     1       6.980  -1.423  -2.717  1.00  0.00     0.045 A 
ATOM     12  C   UNL     1       6.451  -0.156  -4.782  1.00  0.00     0.339 C 
ATOM     13  C   UNL     1       5.582  -1.165  -2.232  1.00  0.00     0.197 C 
ATOM     14  O   UNL     1       5.291   0.266  -4.229  1.00  0.00    -0.453 OA
ATOM     15  O   UNL     1       6.724   0.098  -5.951  1.00  0.00    -0.246 OA
ATOM     16  O   UNL     1       4.745  -2.249  -2.641  1.00  0.00    -0.361 OA
ATOM     17  C   UNL     1       5.030   0.140  -2.805  1.00  0.00     0.241 C 
ATOM     18  C   UNL     1       3.467  -2.251  -1.975  1.00  0.00     0.169 C 
ATOM     19  C   UNL     1       3.496   0.204  -2.638  1.00  0.00     0.183 C 
BRANCH   6  20
ATOM     20  O   UNL     1      10.804  -2.002  -4.105  1.00  0.00    -0.504 OA
ATOM     21  H   UNL     1      10.921  -1.610  -4.987  1.00  0.00     0.293 HD
ENDBRANCH   6  20
BRANCH   8  22
ATOM     22  O   UNL     1       9.938  -3.055  -1.506  1.00  0.00    -0.490 OA
ATOM     23  C   UNL     1      11.234  -3.481  -1.903  1.00  0.00     0.278 C 
ENDBRANCH   8  22
BRANCH  10  24
ATOM     24  O   UNL     1       7.486  -2.604  -0.724  1.00  0.00    -0.504 OA
ATOM     25  H   UNL     1       8.236  -3.087  -0.325  1.00  0.00     0.293 HD
ENDBRANCH  10  24
BRANCH  18  26
ATOM     26  C   UNL     1       3.558  -3.176  -0.749  1.00  0.00     0.190 C 
BRANCH  26  27
ATOM     27  O   UNL     1       2.295  -3.362  -0.120  1.00  0.00    -0.394 OA
ATOM     28  H   UNL     1       2.440  -4.006   0.596  1.00  0.00     0.210 HD
ENDBRANCH  26  27
ENDBRANCH  18  26
BRANCH  19  29
ATOM     29  O   UNL     1       3.138   1.528  -2.198  1.00  0.00    -0.387 OA
ATOM     30  H   UNL     1       2.165   1.523  -2.123  1.00  0.00     0.211 HD
ENDBRANCH  19  29
ENDBRANCH   1   5
BRANCH   2  31
ATOM     31  C   UNL     1      -0.876  -1.053  -1.847  1.00  0.00     0.181 C 
BRANCH  31  32
ATOM     32  N   UNL     1      -1.047  -2.060  -0.792  1.00  0.00    -0.344 N 
ATOM     33  C   UNL     1      -0.694  -1.836   0.513  1.00  0.00     0.217 C 
ATOM     34  H   UNL     1      -1.157  -3.019  -1.103  1.00  0.00     0.164 HD
ATOM     35  C   UNL     1      -0.930  -2.997   1.439  1.00  0.00     0.114 C 
ATOM     36  O   UNL     1      -0.197  -0.779   0.891  1.00  0.00    -0.275 OA
ENDBRANCH  31  32
BRANCH  31  37
ATOM     37  C   UNL     1      -1.883  -1.268  -2.987  1.00  0.00     0.101 C 
BRANCH  37  38
ATOM     38  S   UNL     1      -1.870  -2.966  -3.672  1.00  0.00    -0.177 SA
ATOM     39  H   UNL     1      -0.655  -2.869  -4.244  1.00  0.00     0.102 HD
ENDBRANCH  37  38
ENDBRANCH  31  37
ENDBRANCH   2  31
TORSDOF 11
