REMARK  7 active torsions:
REMARK  status: ('A' for Active; 'I' for Inactive)
REMARK    1  A    between atoms: O3_3  and  C12_12 
REMARK    2  A    between atoms: O4_4  and  C13_13 
REMARK    3  A    between atoms: O5_5  and  C16_16 
REMARK    4  A    between atoms: O6_6  and  C19_19 
REMARK    5  A    between atoms: O8_8  and  C21_21 
REMARK    6  A    between atoms: O9_9  and  C22_22 
REMARK    7  A    between atoms: C14_14  and  C16_16 
ROOT
ATOM      1  O1  RES d   1      -1.324   1.158  -0.033  0.00  0.00    -0.368 OA
ATOM      2  O2  RES d   1      -0.875  -2.481  -0.175  0.00  0.00    -0.306 OA
ATOM      3  O7  RES d   1       0.978  -3.752  -0.453  0.00  0.00    -0.259 OA
ATOM      4  C10 RES d   1      -1.401  -1.225   0.298  0.00  0.00     0.197 C 
ATOM      5  C11 RES d   1      -0.782  -0.079  -0.491  0.00  0.00     0.191 C 
ATOM      6  C12 RES d   1      -2.920  -1.225   0.124  0.00  0.00     0.181 C 
ATOM      7  C13 RES d   1      -3.495   0.158   0.440  0.00  0.00     0.180 C 
ATOM      8  C14 RES d   1      -2.727   1.260  -0.300  0.00  0.00     0.177 C 
ATOM      9  C15 RES d   1       0.707  -0.157  -0.283  0.00  0.00     0.026 A 
ATOM     10  C17 RES d   1       1.300  -1.425  -0.167  0.00  0.00     0.054 A 
ATOM     11  C18 RES d   1       0.472  -2.653  -0.270  0.00  0.00     0.294 C 
ATOM     12  C19 RES d   1       1.522   0.982  -0.254  0.00  0.00     0.111 A 
ATOM     13  C20 RES d   1       2.684  -1.546   0.001  0.00  0.00     0.057 A 
ATOM     14  C21 RES d   1       2.901   0.858  -0.082  0.00  0.00     0.135 A 
ATOM     15  C22 RES d   1       3.480  -0.403   0.049  0.00  0.00     0.102 A 
ENDROOT
BRANCH   8  16
ATOM     16  C16 RES d   1      -3.177   2.650   0.134  0.00  0.00     0.198 C 
BRANCH  16  17
ATOM     17  O5  RES d   1      -2.421   3.613  -0.578  0.00  0.00    -0.398 OA
ATOM     18  H34 RES d   1      -1.482   3.450  -0.386  0.00  0.00     0.209 HD
ENDBRANCH  16  17
ENDBRANCH   8  16
BRANCH   7  19
ATOM     19  O4  RES d   1      -4.866   0.200   0.052  0.00  0.00    -0.390 OA
ATOM     20  H32 RES d   1      -4.910   0.052  -0.908  0.00  0.00     0.210 HD
ENDBRANCH   7  19
BRANCH   6  21
ATOM     21  O3  RES d   1      -3.498  -2.170   1.025  0.00  0.00    -0.390 OA
ATOM     22  H31 RES d   1      -4.463  -2.130   0.908  0.00  0.00     0.210 HD
ENDBRANCH   6  21
BRANCH  12  23
ATOM     23  O6  RES d   1       1.006   2.234  -0.423  0.00  0.00    -0.357 OA
ATOM     24  H35 RES d   1       1.735   2.878  -0.432  0.00  0.00     0.217 HD
ENDBRANCH  12  23
BRANCH  14  25
ATOM     25  O8  RES d   1       3.689   1.971  -0.051  0.00  0.00    -0.351 OA
ATOM     26  C23 RES d   1       3.920   2.564   1.225  0.00  0.00     0.210 C 
ENDBRANCH  14  25
BRANCH  15  27
ATOM     27  O9  RES d   1       4.826  -0.533   0.215  0.00  0.00    -0.358 OA
ATOM     28  H36 RES d   1       5.230   0.351   0.174  0.00  0.00     0.217 HD
ENDBRANCH  15  27
TORSDOF 7
