REMARK  12 active torsions:
REMARK  status: ('A' for Active; 'I' for Inactive)
REMARK    1  A    between atoms: O3_3  and  C16_16 
REMARK    2  A    between atoms: O3_3  and  C28_28 
REMARK    3  A    between atoms: O4_4  and  C18_18 
REMARK    4  A    between atoms: O4_4  and  C29_29 
REMARK    5  A    between atoms: O5_5  and  C21_21 
REMARK    6  A    between atoms: O5_5  and  C32_32 
REMARK    7  A    between atoms: O6_6  and  C24_24 
REMARK    8  A    between atoms: O6_6  and  C33_33 
REMARK    9  A    between atoms: O8_8  and  C26_26 
REMARK   10  A    between atoms: O9_9  and  C27_27 
REMARK   11  A    between atoms: O9_9  and  C36_36 
REMARK   12  A    between atoms: C19_19  and  C21_21 
ROOT
ATOM      1  O1  RES d   1      -0.753   0.971  -0.366  0.00  0.00    -0.368 OA
ATOM      2  O2  RES d   1      -0.299  -2.663  -0.145  0.00  0.00    -0.306 OA
ATOM      3  O7  RES d   1       1.568  -3.933   0.026  0.00  0.00    -0.259 OA
ATOM      4  C15 RES d   1      -0.901  -1.381   0.124  0.00  0.00     0.198 C 
ATOM      5  C16 RES d   1      -2.359  -1.410  -0.332  0.00  0.00     0.196 C 
ATOM      6  C17 RES d   1      -0.140  -0.292  -0.619  0.00  0.00     0.191 C 
ATOM      7  C18 RES d   1      -2.978  -0.014  -0.236  0.00  0.00     0.195 C 
ATOM      8  C19 RES d   1      -2.080   1.037  -0.899  0.00  0.00     0.179 C 
ATOM      9  C20 RES d   1       1.284  -0.338  -0.130  0.00  0.00     0.026 A 
ATOM     10  C22 RES d   1       1.839  -1.587   0.191  0.00  0.00     0.054 A 
ATOM     11  C23 RES d   1       1.040  -2.828   0.028  0.00  0.00     0.294 C 
ATOM     12  C24 RES d   1       2.082   0.808  -0.035  0.00  0.00     0.125 A 
ATOM     13  C25 RES d   1       3.166  -1.681   0.624  0.00  0.00     0.058 A 
ATOM     14  C26 RES d   1       3.404   0.713   0.402  0.00  0.00     0.137 A 
ATOM     15  C27 RES d   1       3.943  -0.529   0.734  0.00  0.00     0.116 A 
ENDROOT
BRANCH   8  16
ATOM     16  C21 RES d   1      -2.599   2.452  -0.664  0.00  0.00     0.213 C 
BRANCH  16  17
ATOM     17  O5  RES d   1      -2.642   2.690   0.732  0.00  0.00    -0.319 OA
BRANCH  17  18
ATOM     18  C32 RES d   1      -3.090   3.926   1.117  0.00  0.00     0.254 C 
ATOM     19  O12 RES d   1      -3.449   4.824   0.367  0.00  0.00    -0.266 OA
ATOM     20  C34 RES d   1      -3.081   4.034   2.612  0.00  0.00     0.126 C 
ENDBRANCH  17  18
ENDBRANCH  16  17
ENDBRANCH   8  16
BRANCH   7  21
ATOM     21  O4  RES d   1      -4.252  -0.015  -0.876  0.00  0.00    -0.311 OA
BRANCH  21  22
ATOM     22  C29 RES d   1      -5.312  -0.355  -0.084  0.00  0.00     0.255 C 
ATOM     23  O11 RES d   1      -5.262  -0.652   1.102  0.00  0.00    -0.266 OA
ATOM     24  C31 RES d   1      -6.577  -0.314  -0.886  0.00  0.00     0.126 C 
ENDBRANCH  21  22
ENDBRANCH   7  21
BRANCH   5  25
ATOM     25  O3  RES d   1      -3.101  -2.291   0.513  0.00  0.00    -0.311 OA
BRANCH  25  26
ATOM     26  C28 RES d   1      -3.156  -3.591   0.105  0.00  0.00     0.255 C 
ATOM     27  O10 RES d   1      -2.637  -4.057  -0.901  0.00  0.00    -0.266 OA
ATOM     28  C30 RES d   1      -3.961  -4.393   1.082  0.00  0.00     0.126 C 
ENDBRANCH  25  26
ENDBRANCH   5  25
BRANCH  12  29
ATOM     29  O6  RES d   1       1.613   2.039  -0.393  0.00  0.00    -0.276 OA
BRANCH  29  30
ATOM     30  C33 RES d   1       1.831   2.363  -1.740  0.00  0.00     0.260 C 
ATOM     31  O13 RES d   1       2.386   1.654  -2.568  0.00  0.00    -0.265 OA
ATOM     32  C37 RES d   1       1.282   3.728  -2.032  0.00  0.00     0.126 C 
ENDBRANCH  29  30
ENDBRANCH  12  29
BRANCH  14  33
ATOM     33  O8  RES d   1       4.176   1.833   0.496  0.00  0.00    -0.351 OA
ATOM     34  C35 RES d   1       4.166   2.522   1.744  0.00  0.00     0.210 C 
ENDBRANCH  14  33
BRANCH  15  35
ATOM     35  O9  RES d   1       5.234  -0.632   1.159  0.00  0.00    -0.276 OA
BRANCH  35  36
ATOM     36  C36 RES d   1       6.164  -0.821   0.124  0.00  0.00     0.260 C 
ATOM     37  O14 RES d   1       5.902  -0.896  -1.069  0.00  0.00    -0.265 OA
ATOM     38  C38 RES d   1       7.548  -0.922   0.692  0.00  0.00     0.126 C 
ENDBRANCH  35  36
ENDBRANCH  15  35
TORSDOF 12
