REMARK  7 active torsions:
REMARK  status: ('A' for Active; 'I' for Inactive)
REMARK    1  A    between atoms: O3_3  and  C12_12 
REMARK    2  A    between atoms: O4_4  and  C13_13 
REMARK    3  A    between atoms: O5_5  and  C16_16 
REMARK    4  A    between atoms: O6_6  and  C19_19 
REMARK    5  A    between atoms: O8_8  and  C21_21 
REMARK    6  A    between atoms: O9_9  and  C22_22 
REMARK    7  A    between atoms: C14_14  and  C16_16 
ROOT
ATOM      1  O1  RES d   1       1.226  -1.100   0.046  0.00  0.00    -0.368 OA
ATOM      2  O2  RES d   1       0.926   2.534  -0.226  0.00  0.00    -0.306 OA
ATOM      3  O7  RES d   1      -0.847   3.848  -0.365  0.00  0.00    -0.259 OA
ATOM      4  C10 RES d   1       1.410   1.269   0.247  0.00  0.00     0.197 C 
ATOM      5  C11 RES d   1       0.726   0.116  -0.486  0.00  0.00     0.191 C 
ATOM      6  C12 RES d   1       2.914   1.205   0.049  0.00  0.00     0.181 C 
ATOM      7  C13 RES d   1       3.436  -0.196   0.407  0.00  0.00     0.180 C 
ATOM      8  C14 RES d   1       2.609  -1.300  -0.257  0.00  0.00     0.177 C 
ATOM      9  C15 RES d   1      -0.763   0.236  -0.299  0.00  0.00     0.026 A 
ATOM     10  C17 RES d   1      -1.296   1.523  -0.121  0.00  0.00     0.054 A 
ATOM     11  C18 RES d   1      -0.420   2.734  -0.226  0.00  0.00     0.294 C 
ATOM     12  C19 RES d   1      -1.650  -0.841  -0.351  0.00  0.00     0.111 A 
ATOM     13  C20 RES d   1      -2.662   1.743   0.035  0.00  0.00     0.057 A 
ATOM     14  C21 RES d   1      -3.013  -0.626  -0.130  0.00  0.00     0.135 A 
ATOM     15  C22 RES d   1      -3.526   0.659   0.038  0.00  0.00     0.102 A 
ENDROOT
BRANCH   8  16
ATOM     16  C16 RES d   1       2.929  -2.705   0.226  0.00  0.00     0.198 C 
BRANCH  16  17
ATOM     17  O5  RES d   1       2.117  -3.664  -0.431  0.00  0.00    -0.398 OA
ATOM     18  H34 RES d   1       1.203  -3.353  -0.368  0.00  0.00     0.209 HD
ENDBRANCH  16  17
ENDBRANCH   8  16
BRANCH   7  19
ATOM     19  O4  RES d   1       4.830  -0.292   0.111  0.00  0.00    -0.390 OA
ATOM     20  H32 RES d   1       4.952  -0.255  -0.847  0.00  0.00     0.210 HD
ENDBRANCH   7  19
BRANCH   6  21
ATOM     21  O3  RES d   1       3.533   2.190   0.853  0.00  0.00    -0.390 OA
ATOM     22  H31 RES d   1       4.484   2.021   0.842  0.00  0.00     0.210 HD
ENDBRANCH   6  21
BRANCH  12  23
ATOM     23  O6  RES d   1      -1.224  -2.107  -0.627  0.00  0.00    -0.357 OA
ATOM     24  H35 RES d   1      -2.017  -2.642  -0.783  0.00  0.00     0.217 HD
ENDBRANCH  12  23
BRANCH  14  25
ATOM     25  O8  RES d   1      -3.876  -1.708  -0.170  0.00  0.00    -0.351 OA
ATOM     26  C23 RES d   1      -4.106  -2.322   1.120  0.00  0.00     0.210 C 
ENDBRANCH  14  25
BRANCH  15  27
ATOM     27  O9  RES d   1      -4.863   0.856   0.190  0.00  0.00    -0.358 OA
ATOM     28  H36 RES d   1      -5.317   0.029  -0.029  0.00  0.00     0.217 HD
ENDBRANCH  15  27
TORSDOF 7
