REMARK  10 active torsions:
REMARK  status: ('A' for Active; 'I' for Inactive)
REMARK    1  A    between atoms: C1_1  and  C5_5 
REMARK    2  A    between atoms: C2_2  and  O3_3 
REMARK    3  A    between atoms: O4_4  and  C5_5 
REMARK    4  A    between atoms: C8_8  and  O17_17 
REMARK    5  A    between atoms: C15_15  and  O21_21 
REMARK    6  A    between atoms: C20_20  and  O22_22 
REMARK    7  A    between atoms: O21_21  and  C29_29 
REMARK    8  A    between atoms: O22_22  and  C23_23 
REMARK    9  A    between atoms: C23_23  and  C24_24 
REMARK   10  A    between atoms: C29_29  and  C30_30 
ROOT
ATOM      1  C1  RES d   1      -0.929   6.630   1.233  0.00  0.00     0.177 C 
ATOM      2  C2  RES d   1      -0.743   7.137   2.670  0.00  0.00     0.180 C 
ATOM      3  C6  RES d   1      -2.444   4.970   2.183  0.00  0.00     0.191 C 
ATOM      4  C7  RES d   1      -3.124   6.221   2.732  0.00  0.00     0.197 C 
ATOM      5  C8  RES d   1      -2.080   7.106   3.429  0.00  0.00     0.181 C 
ATOM      6  O9  RES d   1      -1.508   5.312   1.159  0.00  0.00    -0.368 OA
ATOM      7  C10 RES d   1      -3.510   4.011   1.663  0.00  0.00     0.024 A 
ATOM      8  C11 RES d   1      -4.739   4.064   2.232  0.00  0.00     0.053 A 
ATOM      9  C12 RES d   1      -5.054   4.953   3.393  0.00  0.00     0.294 C 
ATOM     10  O13 RES d   1      -4.140   5.907   3.698  0.00  0.00    -0.306 OA
ATOM     11  C14 RES d   1      -4.325   2.345   0.191  0.00  0.00     0.005 A 
ATOM     12  C15 RES d   1      -3.305   3.120   0.650  0.00  0.00     0.087 A 
ATOM     13  C16 RES d   1      -4.117   1.406  -0.982  0.00  0.00     0.054 C 
ATOM     14  O18 RES d   1      -6.069   4.824   4.067  0.00  0.00    -0.259 OA
ATOM     15  C19 RES d   1      -5.740   3.273   1.794  0.00  0.00     0.055 A 
ATOM     16  C20 RES d   1      -5.554   2.415   0.767  0.00  0.00     0.079 A 
ENDROOT
BRANCH  12  17
ATOM     17  O21 RES d   1      -2.056   3.011   0.044  0.00  0.00    -0.344 OA
BRANCH  17  18
ATOM     18  C29 RES d   1      -1.218   2.077   0.747  0.00  0.00     0.238 C 
BRANCH  18  19
ATOM     19  C30 RES d   1       0.117   1.979   0.091  0.00  0.00     0.099 C 
ATOM     20  N31 RES d   1       1.128   1.254   0.681  0.00  0.00    -0.133 NA
ATOM     21  N32 RES d   1       2.182   1.400  -0.008  0.00  0.00    -0.069 NA
ATOM     22  N34 RES d   1       1.901   2.109  -1.128  0.00  0.00    -0.269 N 
ATOM     23  C33 RES d   1       0.575   2.562  -1.015  0.00  0.00     0.142 C 
ATOM     24  H56 RES d   1       2.644   2.662  -1.542  0.00  0.00     0.190 HD
ENDBRANCH  18  19
ENDBRANCH  17  18
ENDBRANCH  12  17
BRANCH  16  25
ATOM     25  O22 RES d   1      -6.545   1.582   0.265  0.00  0.00    -0.344 OA
BRANCH  25  26
ATOM     26  C23 RES d   1      -7.859   1.632   0.827  0.00  0.00     0.238 C 
BRANCH  26  27
ATOM     27  C24 RES d   1      -8.749   0.656   0.137  0.00  0.00     0.099 A 
ATOM     28  C25 RES d   1      -8.483  -0.203  -0.847  0.00  0.00     0.142 A 
ATOM     29  N27 RES d   1      -9.690  -0.843  -1.079  0.00  0.00    -0.269 N 
ATOM     30  N28 RES d   1     -10.626  -0.300  -0.274  0.00  0.00    -0.069 NA
ATOM     31  H52 RES d   1      -9.958  -1.450  -1.843  0.00  0.00     0.190 HD
ATOM     32  N26 RES d   1     -10.082   0.568   0.474  0.00  0.00    -0.133 NA
ENDBRANCH  26  27
ENDBRANCH  25  26
ENDBRANCH  16  25
BRANCH   5  33
ATOM     33  O17 RES d   1      -2.596   8.439   3.544  0.00  0.00    -0.390 OA
ATOM     34  H47 RES d   1      -3.420   8.379   4.067  0.00  0.00     0.210 HD
ENDBRANCH   5  33
BRANCH   1  35
ATOM     35  C5  RES d   1       0.389   6.558   0.456  0.00  0.00     0.198 C 
BRANCH  35  36
ATOM     36  O4  RES d   1       0.112   6.147  -0.887  0.00  0.00    -0.398 OA
ATOM     37  H38 RES d   1      -0.536   5.420  -0.794  0.00  0.00     0.209 HD
ENDBRANCH  35  36
ENDBRANCH   1  35
BRANCH   2  38
ATOM     38  O3  RES d   1       0.195   6.298   3.358  0.00  0.00    -0.390 OA
ATOM     39  H37 RES d   1       0.457   6.764   4.173  0.00  0.00     0.210 HD
ENDBRANCH   2  38
TORSDOF 10
