REMARK  7 active torsions:
REMARK  status: ('A' for Active; 'I' for Inactive)
REMARK    1  A    between atoms: C1_1  and  C17_17 
REMARK    2  A    between atoms: C2_2  and  O16_16 
REMARK    3  A    between atoms: C3_3  and  O15_15 
REMARK    4  A    between atoms: C11_11  and  N23_23 
REMARK    5  A    between atoms: C12_12  and  O22_22 
REMARK    6  A    between atoms: C14_14  and  O20_20 
REMARK    7  A    between atoms: C17_17  and  O19_19 
ROOT
ATOM      1  C1  RES d   1      -3.557   0.300   0.891  0.00  0.00     0.177 C 
ATOM      2  C2  RES d   1      -3.956  -0.754  -0.156  0.00  0.00     0.180 C 
ATOM      3  C3  RES d   1      -2.927  -1.882  -0.152  0.00  0.00     0.181 C 
ATOM      4  C4  RES d   1      -1.540  -1.349  -0.544  0.00  0.00     0.197 C 
ATOM      5  C5  RES d   1      -1.439   0.134  -0.237  0.00  0.00     0.191 C 
ATOM      6  O6  RES d   1      -2.134   0.452   0.982  0.00  0.00    -0.368 OA
ATOM      7  O7  RES d   1      -0.581  -2.146   0.170  0.00  0.00    -0.306 OA
ATOM      8  C8  RES d   1       0.690  -1.715   0.387  0.00  0.00     0.297 C 
ATOM      9  C9  RES d   1       1.019  -0.303   0.025  0.00  0.00     0.082 A 
ATOM     10  C10 RES d   1      -0.028   0.610  -0.143  0.00  0.00     0.026 A 
ATOM     11  C11 RES d   1       2.345   0.162   0.003  0.00  0.00     0.110 A 
ATOM     12  C12 RES d   1       2.593   1.547  -0.066  0.00  0.00     0.104 A 
ATOM     13  C13 RES d   1       1.545   2.469  -0.179  0.00  0.00     0.007 A 
ATOM     14  C14 RES d   1       0.238   1.984  -0.239  0.00  0.00     0.084 A 
ATOM     15  O18 RES d   1       1.454  -2.477   0.918  0.00  0.00    -0.259 OA
ATOM     16  C21 RES d   1       1.837   3.940  -0.248  0.00  0.00     0.054 C 
ENDROOT
BRANCH  11  17
ATOM     17  N23 RES d   1       3.469  -0.710  -0.010  0.00  0.00    -0.223 N 
ATOM     18  N24 RES d   1       4.605  -0.402   0.691  0.00  0.00    -0.159 NA
ATOM     19  C26 RES d   1       5.427  -1.384   0.370  0.00  0.00     0.257 A 
ATOM     20  N27 RES d   1       4.910  -2.296  -0.489  0.00  0.00    -0.233 NA
ATOM     21  C25 RES d   1       3.694  -1.841  -0.710  0.00  0.00     0.236 A 
ENDBRANCH  11  17
BRANCH  12  22
ATOM     22  O22 RES d   1       3.846   2.047  -0.040  0.00  0.00    -0.358 OA
ATOM     23  H42 RES d   1       4.450   1.355   0.311  0.00  0.00     0.217 HD
ENDBRANCH  12  22
BRANCH  14  24
ATOM     24  O20 RES d   1      -0.746   2.903  -0.400  0.00  0.00    -0.359 OA
ATOM     25  H38 RES d   1      -1.641   2.538  -0.278  0.00  0.00     0.217 HD
ENDBRANCH  14  24
BRANCH   3  26
ATOM     26  O15 RES d   1      -3.407  -2.886  -1.044  0.00  0.00    -0.390 OA
ATOM     27  H33 RES d   1      -2.977  -3.724  -0.839  0.00  0.00     0.210 HD
ENDBRANCH   3  26
BRANCH   1  28
ATOM     28  C17 RES d   1      -4.211   1.658   0.690  0.00  0.00     0.198 C 
BRANCH  28  29
ATOM     29  O19 RES d   1      -3.606   2.287  -0.453  0.00  0.00    -0.398 OA
ATOM     30  H37 RES d   1      -4.067   3.111  -0.645  0.00  0.00     0.209 HD
ENDBRANCH  28  29
ENDBRANCH   1  28
BRANCH   2  31
ATOM     31  O16 RES d   1      -5.244  -1.225   0.205  0.00  0.00    -0.390 OA
ATOM     32  H34 RES d   1      -5.426  -2.001  -0.342  0.00  0.00     0.210 HD
ENDBRANCH   2  31
TORSDOF 7
