REMARK  7 active torsions:
REMARK  status: ('A' for Active; 'I' for Inactive)
REMARK    1  A    between atoms: C1_1  and  C5_5 
REMARK    2  A    between atoms: C2_2  and  O3_3 
REMARK    3  A    between atoms: O4_4  and  C5_5 
REMARK    4  A    between atoms: C8_8  and  O18_18 
REMARK    5  A    between atoms: C15_15  and  O17_17 
REMARK    6  A    between atoms: C20_20  and  C23_23 
REMARK    7  A    between atoms: C21_21  and  O22_22 
ROOT
ATOM      1  C1  RES d   1       0.600   0.779  -1.648  0.00  0.00     0.177 C 
ATOM      2  C2  RES d   1       1.534   0.335  -2.789  0.00  0.00     0.180 C 
ATOM      3  C6  RES d   1       0.985   3.026  -2.512  0.00  0.00     0.191 C 
ATOM      4  C7  RES d   1       0.460   2.408  -3.806  0.00  0.00     0.197 C 
ATOM      5  C8  RES d   1       1.151   1.062  -4.084  0.00  0.00     0.181 C 
ATOM      6  O9  RES d   1       0.727   2.192  -1.367  0.00  0.00    -0.368 OA
ATOM      7  C10 RES d   1       0.325   4.398  -2.361  0.00  0.00     0.024 A 
ATOM      8  C11 RES d   1       0.129   5.136  -3.489  0.00  0.00     0.067 A 
ATOM      9  C12 RES d   1       0.651   4.610  -4.787  0.00  0.00     0.295 C 
ATOM     10  O13 RES d   1       0.703   3.264  -4.936  0.00  0.00    -0.306 OA
ATOM     11  C14 RES d   1      -0.689   6.119  -1.099  0.00  0.00     0.006 A 
ATOM     12  C15 RES d   1      -0.096   4.902  -1.168  0.00  0.00     0.084 A 
ATOM     13  C16 RES d   1      -1.147   6.697   0.225  0.00  0.00     0.054 C 
ATOM     14  O19 RES d   1       1.022   5.345  -5.693  0.00  0.00    -0.259 OA
ATOM     15  C20 RES d   1      -0.476   6.348  -3.426  0.00  0.00     0.052 A 
ATOM     16  C21 RES d   1      -0.880   6.843  -2.229  0.00  0.00     0.088 A 
ENDROOT
BRANCH   1  17
ATOM     17  C5  RES d   1       0.886   0.025  -0.343  0.00  0.00     0.198 C 
BRANCH  17  18
ATOM     18  O4  RES d   1       2.232   0.250   0.082  0.00  0.00    -0.398 OA
ATOM     19  H29 RES d   1       2.285   1.194   0.328  0.00  0.00     0.209 HD
ENDBRANCH  17  18
ENDBRANCH   1  17
BRANCH   2  20
ATOM     20  O3  RES d   1       2.896   0.670  -2.481  0.00  0.00    -0.390 OA
ATOM     21  H28 RES d   1       3.091   0.275  -1.604  0.00  0.00     0.210 HD
ENDBRANCH   2  20
BRANCH   5  22
ATOM     22  O18 RES d   1       0.249   0.242  -4.843  0.00  0.00    -0.390 OA
ATOM     23  H39 RES d   1       0.205   0.631  -5.738  0.00  0.00     0.210 HD
ENDBRANCH   5  22
BRANCH  12  24
ATOM     24  O17 RES d   1       0.071   4.190   0.010  0.00  0.00    -0.359 OA
ATOM     25  H38 RES d   1       0.397   3.285  -0.158  0.00  0.00     0.217 HD
ENDBRANCH  12  24
BRANCH  15  26
ATOM     26  C23 RES d   1      -0.777   7.169  -4.647  0.00  0.00     0.273 C 
ATOM     27  O24 RES d   1      -1.030   8.372  -4.595  0.00  0.00    -0.301 OA
ENDBRANCH  15  26
BRANCH  16  28
ATOM     28  O22 RES d   1      -1.502   8.083  -2.106  0.00  0.00    -0.359 OA
ATOM     29  H40 RES d   1      -1.480   8.599  -2.942  0.00  0.00     0.217 HD
ENDBRANCH  16  28
TORSDOF 7
