REMARK  10 active torsions:
REMARK  status: ('A' for Active; 'I' for Inactive)
REMARK    1  A    between atoms: C1_1  and  C5_5 
REMARK    2  A    between atoms: C2_2  and  O3_3 
REMARK    3  A    between atoms: O4_4  and  C5_5 
REMARK    4  A    between atoms: C8_8  and  O17_17 
REMARK    5  A    between atoms: C15_15  and  O21_21 
REMARK    6  A    between atoms: C20_20  and  O22_22 
REMARK    7  A    between atoms: O21_21  and  C29_29 
REMARK    8  A    between atoms: O22_22  and  C23_23 
REMARK    9  A    between atoms: C23_23  and  C24_24 
REMARK   10  A    between atoms: C29_29  and  C30_30 
ROOT
ATOM      1  C1  RES d   1       3.699  -1.024   1.098  0.00  0.00     0.177 C 
ATOM      2  C2  RES d   1       4.267  -2.043   0.119  0.00  0.00     0.180 C 
ATOM      3  C6  RES d   1       1.690  -1.162  -0.291  0.00  0.00     0.191 C 
ATOM      4  C7  RES d   1       1.811  -2.636   0.077  0.00  0.00     0.197 C 
ATOM      5  C8  RES d   1       3.225  -3.147  -0.181  0.00  0.00     0.181 C 
ATOM      6  O9  RES d   1       2.487  -0.407   0.617  0.00  0.00    -0.368 OA
ATOM      7  C10 RES d   1       0.240  -0.732  -0.218  0.00  0.00     0.024 A 
ATOM      8  C11 RES d   1      -0.742  -1.714  -0.377  0.00  0.00     0.053 A 
ATOM      9  C12 RES d   1      -0.400  -3.121  -0.729  0.00  0.00     0.294 C 
ATOM     10  O13 RES d   1       0.915  -3.474  -0.668  0.00  0.00    -0.306 OA
ATOM     11  C14 RES d   1      -1.541   0.921   0.083  0.00  0.00     0.005 A 
ATOM     12  C15 RES d   1      -0.186   0.595  -0.028  0.00  0.00     0.087 A 
ATOM     13  C16 RES d   1      -2.004   2.331   0.324  0.00  0.00     0.054 C 
ATOM     14  O18 RES d   1      -1.202  -3.935  -1.103  0.00  0.00    -0.259 OA
ATOM     15  C19 RES d   1      -2.101  -1.410  -0.290  0.00  0.00     0.055 A 
ATOM     16  C20 RES d   1      -2.493  -0.107  -0.038  0.00  0.00     0.079 A 
ENDROOT
BRANCH  12  17
ATOM     17  O21 RES d   1       0.716   1.627   0.118  0.00  0.00    -0.344 OA
BRANCH  17  18
ATOM     18  C29 RES d   1       1.403   2.029  -1.071  0.00  0.00     0.238 C 
BRANCH  18  19
ATOM     19  C30 RES d   1       2.201   3.248  -0.755  0.00  0.00     0.099 A 
ATOM     20  N31 RES d   1       2.927   3.886  -1.716  0.00  0.00    -0.133 NA
ATOM     21  N32 RES d   1       3.541   4.905  -1.190  0.00  0.00    -0.069 NA
ATOM     22  N34 RES d   1       3.212   4.928   0.112  0.00  0.00    -0.269 N 
ATOM     23  C33 RES d   1       2.376   3.912   0.432  0.00  0.00     0.142 A 
ATOM     24  H56 RES d   1       3.599   5.643   0.709  0.00  0.00     0.190 HD
ENDBRANCH  18  19
ENDBRANCH  17  18
ENDBRANCH  12  17
BRANCH  16  25
ATOM     25  O22 RES d   1      -3.793   0.287   0.088  0.00  0.00    -0.344 OA
BRANCH  25  26
ATOM     26  C23 RES d   1      -4.814  -0.702  -0.029  0.00  0.00     0.238 C 
BRANCH  26  27
ATOM     27  C24 RES d   1      -6.130  -0.026   0.159  0.00  0.00     0.099 A 
ATOM     28  C25 RES d   1      -6.436   1.303   0.302  0.00  0.00     0.142 A 
ATOM     29  N27 RES d   1      -7.784   1.310   0.429  0.00  0.00    -0.269 N 
ATOM     30  N28 RES d   1      -8.291   0.067   0.369  0.00  0.00    -0.069 NA
ATOM     31  H52 RES d   1      -8.405   2.093   0.558  0.00  0.00     0.190 HD
ATOM     32  N26 RES d   1      -7.287  -0.743   0.206  0.00  0.00    -0.133 NA
ENDBRANCH  26  27
ENDBRANCH  25  26
ENDBRANCH  16  25
BRANCH   5  33
ATOM     33  O17 RES d   1       3.537  -4.276   0.623  0.00  0.00    -0.390 OA
ATOM     34  H47 RES d   1       2.894  -4.972   0.438  0.00  0.00     0.210 HD
ENDBRANCH   5  33
BRANCH   1  35
ATOM     35  C5  RES d   1       4.638   0.127   1.427  0.00  0.00     0.198 C 
BRANCH  35  36
ATOM     36  O4  RES d   1       4.047   1.011   2.371  0.00  0.00    -0.398 OA
ATOM     37  H38 RES d   1       3.185   1.260   2.014  0.00  0.00     0.209 HD
ENDBRANCH  35  36
ENDBRANCH   1  35
BRANCH   2  38
ATOM     38  O3  RES d   1       4.652  -1.350  -1.067  0.00  0.00    -0.390 OA
ATOM     39  H37 RES d   1       5.160  -1.945  -1.629  0.00  0.00     0.210 HD
ENDBRANCH   2  38
TORSDOF 10
