REMARK  7 active torsions:
REMARK  status: ('A' for Active; 'I' for Inactive)
REMARK    1  A    between atoms: C1_1  and  C17_17 
REMARK    2  A    between atoms: C2_2  and  O16_16 
REMARK    3  A    between atoms: C3_3  and  O15_15 
REMARK    4  A    between atoms: C11_11  and  N23_23 
REMARK    5  A    between atoms: C12_12  and  O22_22 
REMARK    6  A    between atoms: C14_14  and  O20_20 
REMARK    7  A    between atoms: C17_17  and  O19_19 
ROOT
ATOM      1  C1  RES d   1       3.957   5.859   3.991  0.00  0.00     0.177 C 
ATOM      2  C2  RES d   1       3.983   6.844   2.804  0.00  0.00     0.180 C 
ATOM      3  C3  RES d   1       3.050   6.323   1.702  0.00  0.00     0.181 C 
ATOM      4  C4  RES d   1       3.489   4.930   1.205  0.00  0.00     0.197 C 
ATOM      5  C5  RES d   1       4.330   4.240   2.276  0.00  0.00     0.191 C 
ATOM      6  O6  RES d   1       3.789   4.488   3.573  0.00  0.00    -0.368 OA
ATOM      7  O7  RES d   1       2.278   4.211   0.894  0.00  0.00    -0.306 OA
ATOM      8  C8  RES d   1       2.142   2.895   1.197  0.00  0.00     0.297 C 
ATOM      9  C9  RES d   1       3.393   2.115   1.433  0.00  0.00     0.082 A 
ATOM     10  C10 RES d   1       4.409   2.757   2.061  0.00  0.00     0.026 A 
ATOM     11  C11 RES d   1       3.495   0.793   1.123  0.00  0.00     0.110 A 
ATOM     12  C12 RES d   1       4.614   0.115   1.507  0.00  0.00     0.104 A 
ATOM     13  C13 RES d   1       5.621   0.748   2.158  0.00  0.00     0.007 A 
ATOM     14  C14 RES d   1       5.519   2.070   2.431  0.00  0.00     0.084 A 
ATOM     15  O18 RES d   1       1.023   2.402   1.240  0.00  0.00    -0.259 OA
ATOM     16  C21 RES d   1       6.846  -0.045   2.563  0.00  0.00     0.054 C 
ENDROOT
BRANCH  11  17
ATOM     17  N23 RES d   1       2.367   0.040   0.333  0.00  0.00    -0.223 N 
ATOM     18  N24 RES d   1       2.404  -1.315   0.170  0.00  0.00    -0.159 NA
ATOM     19  C26 RES d   1       1.722  -1.550  -1.002  0.00  0.00     0.257 C 
ATOM     20  N27 RES d   1       1.394  -0.415  -1.689  0.00  0.00    -0.233 NA
ATOM     21  C25 RES d   1       1.823   0.617  -0.908  0.00  0.00     0.236 C 
ENDBRANCH  11  17
BRANCH  12  22
ATOM     22  O22 RES d   1       4.778  -1.240   1.239  0.00  0.00    -0.358 OA
ATOM     23  H42 RES d   1       3.970  -1.604   0.831  0.00  0.00     0.217 HD
ENDBRANCH  12  22
BRANCH  14  24
ATOM     24  O20 RES d   1       6.564   2.693   3.103  0.00  0.00    -0.359 OA
ATOM     25  H38 RES d   1       6.311   3.521   3.558  0.00  0.00     0.217 HD
ENDBRANCH  14  24
BRANCH   3  26
ATOM     26  O15 RES d   1       3.044   7.264   0.616  0.00  0.00    -0.390 OA
ATOM     27  H33 RES d   1       2.347   6.970  -0.001  0.00  0.00     0.210 HD
ENDBRANCH   3  26
BRANCH   1  28
ATOM     28  C17 RES d   1       5.199   5.974   4.887  0.00  0.00     0.198 C 
BRANCH  28  29
ATOM     29  O19 RES d   1       6.369   5.496   4.214  0.00  0.00    -0.398 OA
ATOM     30  H37 RES d   1       7.118   5.677   4.812  0.00  0.00     0.209 HD
ENDBRANCH  28  29
ENDBRANCH   1  28
BRANCH   2  31
ATOM     31  O16 RES d   1       3.561   8.144   3.226  0.00  0.00    -0.390 OA
ATOM     32  H34 RES d   1       3.382   8.637   2.398  0.00  0.00     0.210 HD
ENDBRANCH   2  31
TORSDOF 7
