REMARK  7 active torsions:
REMARK  status: ('A' for Active; 'I' for Inactive)
REMARK    1  A    between atoms: C1_1  and  C5_5 
REMARK    2  A    between atoms: C2_2  and  O3_3 
REMARK    3  A    between atoms: O4_4  and  C5_5 
REMARK    4  A    between atoms: C8_8  and  O18_18 
REMARK    5  A    between atoms: C15_15  and  O17_17 
REMARK    6  A    between atoms: C20_20  and  C23_23 
REMARK    7  A    between atoms: C21_21  and  O22_22 
ROOT
ATOM      1  C1  RES d   1       2.992   0.608   0.779  0.00  0.00     0.177 C 
ATOM      2  C2  RES d   1       3.581  -0.574   0.003  0.00  0.00     0.180 C 
ATOM      3  C6  RES d   1       0.896  -0.020  -0.362  0.00  0.00     0.191 C 
ATOM      4  C7  RES d   1       1.202  -1.353   0.299  0.00  0.00     0.197 C 
ATOM      5  C8  RES d   1       2.649  -1.793   0.074  0.00  0.00     0.181 C 
ATOM      6  O9  RES d   1       1.705   1.006   0.255  0.00  0.00    -0.368 OA
ATOM      7  C10 RES d   1      -0.578   0.292  -0.186  0.00  0.00     0.024 A 
ATOM      8  C11 RES d   1      -1.479  -0.766  -0.146  0.00  0.00     0.067 A 
ATOM      9  C12 RES d   1      -0.973  -2.151  -0.407  0.00  0.00     0.295 C 
ATOM     10  O13 RES d   1       0.356  -2.383  -0.222  0.00  0.00    -0.306 OA
ATOM     11  C14 RES d   1      -2.427   1.897  -0.024  0.00  0.00     0.006 A 
ATOM     12  C15 RES d   1      -1.069   1.623  -0.132  0.00  0.00     0.084 A 
ATOM     13  C16 RES d   1      -2.961   3.300   0.030  0.00  0.00     0.054 C 
ATOM     14  O19 RES d   1      -1.641  -3.059  -0.827  0.00  0.00    -0.259 OA
ATOM     15  C20 RES d   1      -2.871  -0.529   0.012  0.00  0.00     0.052 A 
ATOM     16  C21 RES d   1      -3.317   0.816   0.063  0.00  0.00     0.088 A 
ENDROOT
BRANCH   1  17
ATOM     17  C5  RES d   1       3.867   1.855   0.790  0.00  0.00     0.198 C 
BRANCH  17  18
ATOM     18  O4  RES d   1       4.177   2.350  -0.515  0.00  0.00    -0.398 OA
ATOM     19  H29 RES d   1       3.388   2.766  -0.882  0.00  0.00     0.209 HD
ENDBRANCH  17  18
ENDBRANCH   1  17
BRANCH   2  20
ATOM     20  O3  RES d   1       3.776  -0.284  -1.372  0.00  0.00    -0.390 OA
ATOM     21  H28 RES d   1       4.181   0.595  -1.436  0.00  0.00     0.210 HD
ENDBRANCH   2  20
BRANCH   5  22
ATOM     22  O18 RES d   1       3.101  -2.638   1.124  0.00  0.00    -0.390 OA
ATOM     23  H39 RES d   1       2.610  -3.468   1.088  0.00  0.00     0.210 HD
ENDBRANCH   5  22
BRANCH  12  24
ATOM     24  O17 RES d   1      -0.226   2.681  -0.198  0.00  0.00    -0.359 OA
ATOM     25  H38 RES d   1       0.677   2.355  -0.031  0.00  0.00     0.217 HD
ENDBRANCH  12  24
BRANCH  15  26
ATOM     26  C23 RES d   1      -3.852  -1.586   0.221  0.00  0.00     0.273 C 
ATOM     27  O24 RES d   1      -5.059  -1.359   0.359  0.00  0.00    -0.301 OA
ENDBRANCH  15  26
BRANCH  16  28
ATOM     28  O22 RES d   1      -4.612   1.110   0.205  0.00  0.00    -0.359 OA
ATOM     29  H40 RES d   1      -5.099   0.239   0.263  0.00  0.00     0.217 HD
ENDBRANCH  16  28
TORSDOF 7
