REMARK SMILES O=C(O)c1cc(O)c(O)c(O)c1
REMARK SMILES IDX 4 1 8 2 6 3 10 4 5 5 12 6 9 7 7 9 11 11 2 13 1 14 3 15
REMARK H PARENT 9 8 7 10 11 12 3 16
REMARK Flexibility Score: inf
ROOT
ATOM      1  C   UNL     1      -1.037   0.042   0.001  1.00  0.00     0.067 A 
ATOM      2  C   UNL     1       1.753  -0.014   0.000  1.00  0.00     0.200 A 
ATOM      3  C   UNL     1       1.079   1.208   0.000  1.00  0.00     0.162 A 
ATOM      4  C   UNL     1       1.031  -1.208   0.001  1.00  0.00     0.162 A 
ATOM      5  C   UNL     1      -0.315   1.235   0.000  1.00  0.00     0.066 A 
ATOM      6  C   UNL     1      -0.363  -1.180   0.001  1.00  0.00     0.066 A 
ENDROOT
BRANCH   2   7
ATOM      7  O   UNL     1       3.116  -0.041  -0.001  1.00  0.00    -0.502 OA
ATOM      8  H   UNL     1       3.441   0.876  -0.001  1.00  0.00     0.293 HD
ENDBRANCH   2   7
BRANCH   3   9
ATOM      9  O   UNL     1       1.773   2.380  -0.000  1.00  0.00    -0.504 OA
ATOM     10  H   UNL     1       1.143   3.122  -0.001  1.00  0.00     0.293 HD
ENDBRANCH   3   9
BRANCH   4  11
ATOM     11  O   UNL     1       1.677  -2.408  -0.001  1.00  0.00    -0.504 OA
ATOM     12  H   UNL     1       2.635  -2.239  -0.001  1.00  0.00     0.293 HD
ENDBRANCH   4  11
BRANCH   1  13
ATOM     13  C   UNL     1      -2.491   0.071   0.000  1.00  0.00     0.335 C 
ATOM     14  O   UNL     1      -3.186   1.092  -0.000  1.00  0.00    -0.246 OA
BRANCH  13  15
ATOM     15  O   UNL     1      -3.036  -1.176  -0.001  1.00  0.00    -0.478 OA
ATOM     16  H   UNL     1      -4.017  -1.146  -0.002  1.00  0.00     0.297 HD
ENDBRANCH  13  15
ENDBRANCH   1  13
TORSDOF 5
